ITEM: TIMESTEP
0
ITEM: NUMBER OF ATOMS
6000
ITEM: BOX BOUNDS pp pp pp
-20.6917 20.6917
-20.6917 20.6917
-20.6917 20.6917
ITEM: ATOMS id mol type q mass x y z fx fy fz 
4996 833 2 0.04 1.008 -18.5496 -16.1085 -19.5892 5.82287 -4.72152 11.6937 
5052 842 4 0.418 1.008 -13.927 -12.906 -16.8493 -6.22756 1.96082 -11.2831 
5051 842 3 -0.683 15.999 -13.8595 -12.0205 -16.4757 4.27113 -16.8512 23.4844 
5047 842 1 0.145 12.01 -13.283 -12.2789 -15.1988 -47.9748 22.0373 -7.37254 
5050 842 2 0.04 1.008 -13.8364 -13.0562 -14.559 27.3752 21.5367 -22.1413 
4742 791 2 0.04 1.008 -15.9939 -15.19 -16.7044 0.325332 -6.40131 3.07284 
4746 791 4 0.418 1.008 -14.8942 -14.431 -18.3635 -18.3994 3.73549 -48.5722 
4741 791 1 0.145 12.01 -14.9311 -15.399 -16.8323 28.9197 -14.1212 40.6363 
4745 791 3 -0.683 15.999 -14.4134 -14.355 -17.5946 17.7738 -8.54638 23.2509 
4744 791 2 0.04 1.008 -14.3865 -15.2834 -15.8302 -22.8029 -10.9586 -30.3759 
4743 791 2 0.04 1.008 -14.747 -16.4412 -17.2467 -6.88192 31.9677 7.09251 
4997 833 3 -0.683 15.999 -17.9109 -14.3751 -18.7031 -28.7242 -3.78697 17.8833 
4998 833 4 0.418 1.008 -17.083 -14.4153 -19.1285 26.4283 -3.086 -18.6912 
1145 191 3 -0.683 15.999 -12.4922 -19.4456 -12.3141 -30.2259 24.7335 -3.1925 
5049 842 2 0.04 1.008 -13.3363 -11.2969 -14.76 -7.38614 1.91706 16.4333 
5048 842 2 0.04 1.008 -12.2549 -12.3203 -15.381 30.9368 -25.9401 5.86546 
217 37 1 0.145 12.01 -15.5312 -16.3223 -20.4725 -20.3456 26.4463 -21.5733 
221 37 3 -0.683 15.999 -15.7328 -14.9094 -20.3137 3.56789 -12.766 -15.6079 
5038 840 2 0.04 1.008 -18.519 -17.6949 -14.3714 0.833136 0.486967 9.17836 
5035 840 1 0.145 12.01 -17.9959 -18.348 -13.6772 -1.88077 -12.818 -11.9914 
5039 840 3 -0.683 15.999 -18.157 -18.0668 -12.3344 -23.9999 11.7526 26.0797 
1146 191 4 0.418 1.008 -13.1139 -18.9351 -12.8745 11.5944 -1.9593 20.1589 
5040 840 4 0.418 1.008 -19.1059 -18.1152 -12.1074 29.3506 0.253438 -8.24435 
5036 840 2 0.04 1.008 -18.3572 -19.3647 -13.7992 -0.632416 -2.02968 -6.53398 
1630 272 2 0.04 1.008 -10.7619 -10.8065 -19.062 7.89967 -8.22763 -16.8297 
3587 598 3 -0.683 15.999 -16.6093 -18.8727 -18.1478 13.8491 1.138 17.6801 
1627 272 1 0.145 12.01 -10.5206 -11.3641 -20.0021 9.51575 8.46337 -2.86226 
5037 840 2 0.04 1.008 -16.9526 -18.3208 -13.9422 8.3603 -1.0218 -0.996211 
1760 294 2 0.04 1.008 -13.8786 -19.3212 -15.2052 9.37697 -8.4821 -2.13111 
1919 320 3 -0.683 15.999 -13.949 -17.4485 -13.5406 38.2851 38.9871 -12.2893 
3584 598 2 0.04 1.008 -16.7948 -19.3711 -16.1604 14.9329 6.48431 7.9685 
1762 294 2 0.04 1.008 -13.5171 -17.9962 -16.273 2.43381 -3.41321 6.00187 
1759 294 1 0.145 12.01 -13.3417 -19.0652 -16.1232 15.0849 38.0705 -4.98105 
1920 320 4 0.418 1.008 -13.2485 -16.7623 -13.7886 -28.2953 -37.7901 7.43221 
1915 320 1 0.145 12.01 -14.8135 -16.7304 -12.7157 -21.7772 -8.17735 -3.62083 
1918 320 2 0.04 1.008 -15.4209 -17.4549 -12.1578 4.52524 9.13741 -0.122329 
1916 320 2 0.04 1.008 -15.5195 -16.1412 -13.3246 8.79514 -0.243168 5.44445 
1917 320 2 0.04 1.008 -14.2345 -16.0961 -12.0496 -2.09733 2.46126 3.04301 
1763 294 3 -0.683 15.999 -13.8932 -19.6133 -17.2489 -17.7585 -20.6829 -24.9574 
1761 294 2 0.04 1.008 -12.2335 -19.139 -16.1479 -15.5506 -7.16275 6.77233 
4993 833 1 0.145 12.01 -18.35 -15.7173 -18.576 7.11172 -7.3234 15.6548 
4416 736 4 0.418 1.008 -17.4433 -19.4058 -19.5792 6.6221 16.8747 13.0022 
5453 909 3 -0.683 15.999 -18.9026 -11.3165 -14.0913 -20.8759 -32.2362 10.5169 
4995 833 2 0.04 1.008 -17.6076 -16.2964 -17.9616 -10.7712 10.6648 -26.2199 
220 37 2 0.04 1.008 -16.4623 -16.8958 -20.3883 5.45049 3.17989 9.75977 
1503 251 2 0.04 1.008 -10.4709 -13.2318 -17.182 -8.78448 -3.84118 0.459393 
5451 909 2 0.04 1.008 -20.1088 -10.4192 -12.7158 -8.44976 -4.66013 -19.6853 
1142 191 2 0.04 1.008 -11.8074 -19.8224 -14.2132 3.23332 19.1809 -22.9068 
4064 678 2 0.04 1.008 -17.0706 -10.5135 -17.185 -6.27674 -4.04977 28.0737 
4068 678 4 0.418 1.008 -14.8471 -10.553 -17.0726 13.3637 -3.9936 -0.0100744 
3583 598 1 0.145 12.01 -17.3731 -18.9856 -16.9749 -9.23947 3.54071 2.43877 
4994 833 2 0.04 1.008 -19.2555 -15.8257 -17.9779 -0.320034 10.3226 -6.29146 
1141 191 1 0.145 12.01 -11.7511 -20.1379 -13.227 19.3588 -58.8906 8.93438 
1764 294 4 0.418 1.008 -13.3261 -19.4149 -18.0055 -3.0941 2.73124 4.67352 
5454 909 4 0.418 1.008 -19.2088 -12.187 -13.7329 11.7532 30.611 -17.5592 
233 39 3 -0.683 15.999 -19.5846 -12.2455 -18.7718 -26.2152 46.2485 18.2937 
232 39 2 0.04 1.008 -18.6911 -12.1205 -16.8562 -4.02437 -8.96773 -0.701431 
5819 970 3 -0.683 15.999 -11.8763 -15.8163 -14.0963 4.58852 11.1665 -7.41673 
5820 970 4 0.418 1.008 -11.5456 -15.3903 -14.9333 -9.81994 -15.6488 21.5384 
5817 970 2 0.04 1.008 -10.9853 -17.2893 -12.9275 2.64042 4.82302 -10.1281 
3585 598 2 0.04 1.008 -17.8458 -18.0308 -16.6785 1.33702 -13.1512 -2.2487 
3586 598 2 0.04 1.008 -18.0615 -19.8055 -17.048 -17.3785 -0.0167168 -8.63383 
4063 678 1 0.145 12.01 -16.428 -10.3708 -18.0029 -29.7799 -16.0574 -69.7862 
3588 598 4 0.418 1.008 -15.7108 -18.9762 -17.8184 -0.185114 0.865355 -12.155 
234 39 4 0.418 1.008 -19.0901 -13.005 -18.9214 27.2471 -42.3707 0.69326 
2297 383 3 -0.683 15.999 -12.7734 -18.7546 -19.773 54.5309 -2.11741 -46.009 
1144 191 2 0.04 1.008 -10.7382 -20.3808 -12.948 9.93472 13.7159 5.94453 
1502 251 2 0.04 1.008 -11.6804 -14.2964 -18.0288 24.6677 1.30534 10.4051 
1501 251 1 0.145 12.01 -10.7126 -14.2653 -17.4493 -13.4389 14.0507 -20.7458 
5815 970 1 0.145 12.01 -10.7475 -16.3232 -13.4006 8.05396 -9.18108 10.0367 
5818 970 2 0.04 1.008 -10.4276 -15.7167 -12.5491 -4.61578 6.44544 -6.70668 
1505 251 3 -0.683 15.999 -10.8129 -15.0333 -16.2885 2.68754 7.52055 -2.67894 
2060 344 2 0.04 1.008 -10.4288 -12.2717 -12.1434 20.3289 1.78723 -2.65845 
229 39 1 0.145 12.01 -19.6624 -12.0325 -17.3516 22.9374 -10.0499 -40.7147 
3506 585 2 0.04 1.008 -15.198 -19.2219 -10.973 11.46 -15.6255 -4.45365 
3510 585 4 0.418 1.008 -13.6002 -20.5557 -11.3198 0.236028 -23.3107 2.08493 
230 39 2 0.04 1.008 -19.9026 -11.0144 -17.2997 -15.7539 25.3757 12.3227 
231 39 2 0.04 1.008 -20.4157 -12.6807 -16.9512 -4.10974 -1.64384 11.4111 
4065 678 2 0.04 1.008 -16.4851 -11.2855 -18.6817 6.08601 25.0298 23.119 
2296 383 2 0.04 1.008 -14.2445 -20.1032 -20.6006 27.0103 12.3678 -3.39829 
5214 869 4 0.418 1.008 -19.3929 -14.9562 -14.0878 -6.02345 -10.6295 -13.2153 
5213 869 3 -0.683 15.999 -19.7405 -14.1898 -13.6669 34.4313 20.4967 28.3081 
4271 712 3 -0.683 15.999 -20.3022 -16.741 -15.6188 -29.1229 -17.7248 7.14513 
804 134 4 0.418 1.008 -20.3013 -11.1487 -20.1738 -1.81906 -6.94184 1.74099 
3904 651 2 0.04 1.008 -17.6211 -13.6494 -11.3082 19.1035 9.04283 21.1656 
2298 383 4 0.418 1.008 -11.9349 -18.3645 -20.184 -50.7355 -20.6968 32.4122 
1628 272 2 0.04 1.008 -11.4032 -11.9502 -20.2611 -4.77317 10.5339 -6.62271 
1136 190 2 0.04 1.008 -11.1021 -14.8823 -10.4227 0.182185 -1.96302 -5.30908 
3902 651 2 0.04 1.008 -16.3442 -12.5216 -11.543 8.70824 9.9219 -12.2224 
3903 651 2 0.04 1.008 -17.7523 -11.9899 -10.5634 28.6146 -32.6321 -5.08279 
3901 651 1 0.145 12.01 -17.0189 -12.8513 -10.7882 -44.548 22.1405 -1.67525 
3508 585 2 0.04 1.008 -16.1914 -20.6366 -11.4034 20.6833 13.6129 27.2004 
3505 585 1 0.145 12.01 -15.3487 -20.2847 -10.7166 -32.2265 -13.0003 -32.4766 
219 37 2 0.04 1.008 -14.8049 -16.5618 -19.724 10.7883 -16.844 2.92056 
4415 736 3 -0.683 15.999 -17.6936 -19.7449 -20.4304 -8.64314 -0.132734 -22.9063 
2129 355 3 -0.683 15.999 -20.4618 -19.2656 -10.8954 -16.2593 -14.469 -37.1256 
2125 355 1 0.145 12.01 -20.3134 -20.6732 -10.8555 20.0163 6.45317 17.0758 
1631 272 3 -0.683 15.999 -9.56021 -12.3947 -19.7965 6.30248 25.6324 22.2446 
4091 682 3 -0.683 15.999 -1.11706 -20.1946 -11.4088 -9.48222 15.4478 17.8823 
4489 749 1 0.145 12.01 -5.64065 -13.2181 -19.7803 18.8807 -19.2638 -2.92392 
5859 977 2 0.04 1.008 -4.99662 -18.2786 -18.8384 -5.67939 -2.77037 -8.82863 
2710 452 2 0.04 1.008 -9.00004 -19.3871 -18.5362 1.78757 1.22176 12.3465 
2712 452 4 0.418 1.008 -10.0477 -20.3944 -16.6953 2.7381 7.10598 -14.9687 
4492 749 2 0.04 1.008 -5.72003 -12.1377 -19.8582 -9.42939 1.72716 -1.50758 
5883 981 2 0.04 1.008 -1.09563 -19.2792 -19.5449 1.98235 -4.45718 22.4749 
2253 376 2 0.04 1.008 -0.0614936 -18.3124 -15.5803 1.9449 -1.5164 -16.4229 
619 104 1 0.145 12.01 -4.08859 -19.585 -15.9212 -26.7395 41.2931 3.87881 
5881 981 1 0.145 12.01 -1.11565 -19.2369 -20.5994 40.9861 -17.0636 -8.80456 
620 104 2 0.04 1.008 -3.38557 -18.7742 -16.1604 1.34694 -12.939 -10.4504 
2708 452 2 0.04 1.008 -9.78806 -18.0867 -17.6433 6.27661 -7.27601 1.08711 
623 104 3 -0.683 15.999 -5.38718 -19.345 -16.5317 19.251 2.91982 21.8582 
4490 749 2 0.04 1.008 -5.99348 -13.5818 -18.8089 7.23301 10.4689 -4.57459 
5994 999 4 0.418 1.008 -8.22133 -11.6552 -18.1793 9.28056 12.864 -8.1383 
1504 251 2 0.04 1.008 -9.84599 -14.552 -18.0629 -10.3278 -6.4501 1.38231 
621 104 2 0.04 1.008 -4.27921 -19.2967 -14.8937 1.61661 -12.013 8.30435 
5077 847 1 0.145 12.01 -9.09565 -16.8959 -20.2721 -16.4682 3.74697 -4.74596 
2707 452 1 0.145 12.01 -9.01403 -18.87 -17.5594 -44.4053 -5.96027 -26.0653 
708 118 4 0.418 1.008 -8.30327 -18.8404 -15.1711 -10.4734 -11.3938 -6.56073 
2711 452 3 -0.683 15.999 -9.38551 -19.7241 -16.4939 13.2202 -3.2402 26.0461 
706 118 2 0.04 1.008 -8.60693 -18.5415 -12.9529 -21.6123 0.137977 11.7147 
3893 649 3 -0.683 15.999 -8.2159 -15.8852 -16.2127 58.0843 32.8758 9.63565 
707 118 3 -0.683 15.999 -7.74708 -18.232 -14.7015 9.43864 18.7803 -27.6958 
5663 944 3 -0.683 15.999 -3.36218 -15.9616 -17.0504 -18.3047 -24.6853 -21.9867 
5816 970 2 0.04 1.008 -9.87194 -16.4145 -14.0646 -9.15526 -3.24046 4.22482 
3892 649 2 0.04 1.008 -6.74529 -14.4183 -15.3956 -7.63017 -8.84313 -10.3883 
5664 944 4 0.418 1.008 -3.40656 -16.1511 -16.1399 -1.08714 -0.336851 27.9588 
1506 251 4 0.418 1.008 -9.91137 -15.1263 -15.9884 7.5633 -8.22004 -4.06471 
5989 999 1 0.145 12.01 -8.43711 -11.3698 -16.3605 7.82534 3.44499 -6.92452 
2641 441 1 0.145 12.01 -0.579375 -10.6748 -14.4773 19.7604 -1.53441 8.10793 
703 118 1 0.145 12.01 -7.66 -18.6458 -13.4037 16.7488 12.0243 12.6572 
705 118 2 0.04 1.008 -7.36236 -19.6755 -13.3566 7.51223 -9.33995 3.51581 
2265 378 2 0.04 1.008 -3.98635 -17.2349 -12.3656 -1.98529 16.4025 -15.8942 
2263 378 1 0.145 12.01 -3.6641 -16.2158 -12.694 4.49635 -1.34997 45.4175 
2267 378 3 -0.683 15.999 -4.03994 -15.7573 -13.9604 35.9278 28.7725 -21.7272 
2268 378 4 0.418 1.008 -3.55234 -14.8824 -14.0719 -33.395 -37.0772 5.24771 
3894 649 4 0.418 1.008 -7.95176 -16.6571 -15.6955 -8.85598 2.10634 -0.701226 
2645 441 3 -0.683 15.999 -1.87134 -10.4385 -14.8233 -41.2007 4.15656 -14.851 
3613 603 1 0.145 12.01 -4.63607 -12.6397 -13.9706 -31.5251 -8.32993 -0.780476 
3618 603 4 0.418 1.008 -2.85644 -12.3312 -14.3316 5.58799 -12.1399 -1.68834 
3614 603 2 0.04 1.008 -5.28114 -13.4116 -13.5118 5.22083 2.95867 -14.0546 
3617 603 3 -0.683 15.999 -3.35619 -13.1484 -14.2131 8.42862 22.5333 -4.59186 
5659 944 1 0.145 12.01 -2.65916 -14.8065 -17.2338 51.926 35.4589 -23.4869 
3616 603 2 0.04 1.008 -4.6137 -11.927 -13.1411 3.43399 8.64353 -11.3201 
3889 649 1 0.145 12.01 -6.97132 -15.0527 -16.2797 -42.3112 -30.7672 3.34615 
2061 344 2 0.04 1.008 -8.65319 -11.946 -11.8988 15.2502 -9.38781 16.2353 
2062 344 2 0.04 1.008 -9.27285 -12.2496 -13.5274 1.02921 0.0913387 7.26818 
2059 344 1 0.145 12.01 -9.48369 -11.8232 -12.5369 -45.8383 34.3401 -23.6815 
3615 603 2 0.04 1.008 -5.10811 -12.2503 -14.9289 11.5555 -5.65428 29.8543 
3891 649 2 0.04 1.008 -6.18282 -15.7694 -16.3957 12.1694 -5.84887 5.10376 
3890 649 2 0.04 1.008 -6.90514 -14.499 -17.2066 -8.41563 6.76061 3.63371 
704 118 2 0.04 1.008 -6.96769 -17.9603 -12.8959 -0.408427 -10.0376 1.67794 
5858 977 2 0.04 1.008 -6.15334 -17.6471 -20.1478 2.48548 -11.4818 -1.48439 
5862 977 4 0.418 1.008 -4.31162 -16.1518 -18.4833 -26.5735 -6.72718 -35.7324 
2642 441 2 0.04 1.008 -0.00587508 -11.0109 -15.3684 -4.44822 -0.316144 15.7008 
5993 999 3 -0.683 15.999 -7.79612 -11.027 -17.5866 -11.4248 -15.1098 13.8981 
2063 344 3 -0.683 15.999 -9.73882 -10.3993 -12.6899 17.4127 -22.7918 1.41857 
5992 999 2 0.04 1.008 -8.23046 -12.3833 -16.0335 1.846 -3.10862 -1.13601 
2643 441 2 0.04 1.008 -0.617075 -11.3883 -13.626 10.0073 6.67321 -14.0245 
5857 977 1 0.145 12.01 -5.65832 -17.4823 -19.1947 34.1285 60.5929 -0.843046 
5991 999 2 0.04 1.008 -8.39294 -10.7075 -15.5196 16.7605 12.8493 5.4612 
5861 977 3 -0.683 15.999 -4.86499 -16.2332 -19.3225 9.18539 -36.9207 38.1951 
5990 999 2 0.04 1.008 -9.46044 -11.2894 -16.5871 -25.8422 -5.60446 -5.62681 
622 104 2 0.04 1.008 -3.65978 -20.5822 -15.9528 -0.550023 -2.74228 -6.00649 
5661 944 2 0.04 1.008 -2.50627 -14.603 -18.3326 -1.78853 -6.35208 26.0108 
2266 378 2 0.04 1.008 -4.15704 -15.4835 -12.0078 12.0655 -14.9124 -6.20662 
624 104 4 0.418 1.008 -5.78078 -18.6073 -16.0378 5.57996 -15.7431 -10.8601 
2264 378 2 0.04 1.008 -2.56374 -16.1892 -12.4926 -18.6058 4.5577 -9.67286 
5078 847 2 0.04 1.008 -9.79061 -16.4076 -19.5858 -1.90807 -2.03552 -3.58603 
5662 944 2 0.04 1.008 -3.11758 -13.9367 -16.8133 -16.13 5.98237 4.17156 
2256 376 4 0.418 1.008 -0.0587975 -20.6406 -15.5543 2.07046 24.4587 -0.306438 
812 136 2 0.04 1.008 -3.91884 -11.3392 -17.6166 -32.7555 -3.32228 6.62004 
4494 749 4 0.418 1.008 -4.24029 -14.5269 -19.8387 0.154451 13.884 -3.86475 
2709 452 2 0.04 1.008 -8.09278 -18.361 -17.4624 19.6011 4.33314 10.5158 
4491 749 2 0.04 1.008 -6.25798 -13.781 -20.4983 3.24664 12.5579 -1.00818 
5860 977 2 0.04 1.008 -6.41411 -17.2667 -18.4543 -3.24656 -4.21205 5.40357 
811 136 1 0.145 12.01 -2.98806 -11.1014 -18.0219 53.3706 19.1872 -17.2203 
5158 860 2 0.04 1.008 -0.190356 -14.9651 -12.2704 0.422313 -3.67139 14.9447 
5660 944 2 0.04 1.008 -1.65924 -14.7922 -16.7349 -15.6552 -10.2836 -9.97508 
816 136 4 0.418 1.008 -3.23416 -11.756 -19.7777 12.1372 26.517 1.32477 
5156 860 2 0.04 1.008 -1.09678 -13.7467 -13.2049 12.2125 -7.43201 -0.089838 
5155 860 1 0.145 12.01 -0.174287 -14.356 -13.1488 -14.1012 25.2804 20.5464 
4493 749 3 -0.683 15.999 -4.25758 -13.5667 -19.9804 -20.6275 -9.39715 7.39914 
5157 860 2 0.04 1.008 -0.0970533 -15.0237 -13.921 -7.50483 -27.1868 -36.9861 
814 136 2 0.04 1.008 -2.26643 -11.8107 -17.6366 1.53796 -9.13291 -6.30595 
4092 682 4 0.418 1.008 -1.45273 -19.4488 -10.8734 9.0911 -13.127 -11.2036 
2255 376 3 -0.683 15.999 -0.379063 -20.2007 -16.3613 5.14004 11.5831 -17.9574 
2254 376 2 0.04 1.008 -0.623033 -18.364 -17.306 8.27697 2.59966 3.9322 
815 136 3 -0.683 15.999 -2.90532 -10.8898 -19.4379 -24.0082 -51.3512 6.62994 
2786 465 2 0.04 1.008 -2.67645 -11.0463 -11.1919 16.8494 -7.13459 19.2222 
5079 847 2 0.04 1.008 -8.4024 -17.4114 -19.6564 15.9189 -0.663333 6.16031 
1632 272 4 0.418 1.008 -9.60976 -12.9811 -20.5328 1.16393 -11.5741 -16.5004 
5449 909 1 0.145 12.01 -19.8849 -10.3339 -13.8053 11.4723 12.3528 31.9072 
1205 201 3 -0.683 15.999 -12.4599 -1.10932 -17.3291 14.3463 10.9082 -1.92833 
5450 909 2 0.04 1.008 -19.3472 -9.37502 -13.7814 -8.29439 -5.18978 -13.0605 
800 134 2 0.04 1.008 -20.4731 -9.19766 -20.1616 -0.114218 15.3409 3.22781 
4875 813 2 0.04 1.008 -16.741 -0.540458 -19.7462 2.74567 -18.3103 -4.44913 
5091 849 2 0.04 1.008 -19.6556 -2.43723 -17.1525 -7.67427 -20.0388 22.3002 
4066 678 2 0.04 1.008 -16.8889 -9.55276 -18.5734 0.329305 -6.77097 2.80781 
5090 849 2 0.04 1.008 -19.8307 -4.15245 -16.4803 0.992641 6.37177 -0.536745 
5129 855 3 -0.683 15.999 -20.6201 -1.85971 -10.7362 14.9291 -1.57693 14.654 
4067 678 3 -0.683 15.999 -15.1521 -9.95974 -17.757 18.2016 6.90849 10.0426 
5127 855 2 0.04 1.008 -19.1452 -0.820238 -11.7515 -3.53952 11.516 -2.63174 
5126 855 2 0.04 1.008 -19.1697 -2.53073 -11.9885 -9.93757 3.36056 -6.69794 
3316 553 2 0.04 1.008 -18.4396 -0.468808 -15.9378 17.3732 -3.89654 -9.69968 
4828 805 2 0.04 1.008 -14.941 -1.02212 -13.5338 3.21245 -0.665529 5.44253 
5125 855 1 0.145 12.01 -19.8246 -1.65221 -11.871 -7.57744 -19.1083 4.38588 
4826 805 2 0.04 1.008 -13.1926 -0.753964 -13.9606 6.46276 -1.5525 11.7374 
5128 855 2 0.04 1.008 -20.5834 -1.54918 -12.6564 15.0052 3.56875 -7.12348 
3112 519 2 0.04 1.008 -17.7433 -5.15818 -19.0524 10.2128 6.14416 9.24187 
3749 625 3 -0.683 15.999 -13.9817 -7.91615 -11.3258 -11.328 23.9943 -11.056 
208 35 2 0.04 1.008 -11.7033 -5.37773 -13.7162 -10.2177 0.474229 8.10789 
2752 459 2 0.04 1.008 -16.0163 -4.38072 -17.1203 -2.75213 12.5697 9.4151 
2290 382 2 0.04 1.008 -20.6661 -6.29297 -16.5647 -16.4403 -8.24297 1.19526 
1202 201 2 0.04 1.008 -13.6821 -1.64096 -19.0219 -12.268 7.05265 4.74678 
1203 201 2 0.04 1.008 -12.4008 -2.65875 -18.6986 5.63657 -13.5209 4.68 
5448 908 4 0.418 1.008 -10.8878 -1.43353 -10.868 -6.27035 -4.55069 2.86641 
2753 459 3 -0.683 15.999 -13.9648 -4.15215 -17.2611 1.59882 -6.56248 -26.5671 
3109 519 1 0.145 12.01 -18.6767 -5.24882 -19.5673 -23.8863 -13.3813 1.14098 
2738 457 2 0.04 1.008 -16.6071 -6.4561 -12.9815 13.8417 23.8533 14.684 
1206 201 4 0.418 1.008 -12.9622 -1.49583 -16.5846 -4.9815 -3.25951 -33.3187 
2739 457 2 0.04 1.008 -15.3024 -5.79062 -13.8487 -6.59102 15.2822 17.5405 
2750 459 2 0.04 1.008 -15.1804 -5.67299 -17.7527 5.73986 -7.14089 8.64155 
3110 519 2 0.04 1.008 -19.2435 -6.10181 -19.1515 4.84998 9.77843 -0.325721 
5094 849 4 0.418 1.008 -20.1788 -1.81911 -14.9197 44.376 -44.5097 4.88814 
2749 459 1 0.145 12.01 -15.0832 -4.90514 -16.9844 -10.5466 -12.652 -23.4513 
1201 201 1 0.145 12.01 -12.6643 -1.62479 -18.6785 -0.534341 -7.72587 14.5295 
1732 289 2 0.04 1.008 -12.0989 -4.85276 -20.3703 -11.0954 1.54083 -3.02683 
2741 457 3 -0.683 15.999 -15.7084 -4.78153 -12.0468 22.8307 14.6688 -16.7647 
2751 459 2 0.04 1.008 -14.9599 -5.28761 -15.9871 -5.85595 -9.52793 5.69892 
4825 805 1 0.145 12.01 -14.2085 -0.808644 -14.3081 -4.81249 25.0527 -31.9536 
3318 553 4 0.418 1.008 -17.6277 -2.4628 -15.44 -17.5682 4.14288 -0.629451 
5089 849 1 0.145 12.01 -20.044 -3.09032 -16.3098 13.0774 18.9751 1.51607 
3315 553 2 0.04 1.008 -17.4876 -0.908281 -17.3583 -1.62435 -4.00396 -20.272 
3317 553 3 -0.683 15.999 -16.9352 -1.83824 -15.6128 20.1501 9.15146 -3.98188 
207 35 2 0.04 1.008 -11.757 -4.02502 -12.5899 2.31399 11.1325 2.27687 
724 121 2 0.04 1.008 -13.2039 -7.57537 -20.5125 4.7743 -11.5164 -8.59528 
4830 805 4 0.418 1.008 -15.1828 -1.7855 -15.5315 -43.0872 -7.91104 -14.266 
726 121 4 0.418 1.008 -14.8846 -8.67719 -19.2041 -6.13246 8.57889 -0.515617 
721 121 1 0.145 12.01 -13.9936 -7.1559 -19.9231 33.9377 27.5219 61.1948 
4829 805 3 -0.683 15.999 -14.2785 -1.78929 -15.3335 42.3329 9.17706 20.1713 
723 121 2 0.04 1.008 -14.3247 -6.27735 -20.4102 -2.03151 19.9394 -8.6502 
2357 393 3 -0.683 15.999 -14.7711 -8.88887 -13.896 -37.2866 0.983045 -39.8357 
5252 876 2 0.04 1.008 -18.9982 -6.09688 -13.43 -7.75515 -13.8411 12.3026 
2740 457 2 0.04 1.008 -16.9125 -5.06407 -13.8351 9.14472 19.0457 13.9465 
725 121 3 -0.683 15.999 -15.13 -7.93346 -19.775 -7.60342 -27.2772 4.2989 
5251 876 1 0.145 12.01 -19.7823 -6.69419 -12.9073 23.4497 9.45984 2.44984 
209 35 3 -0.683 15.999 -13.0131 -5.54123 -12.0006 2.27625 19.3792 -12.45 
210 35 4 0.418 1.008 -13.7218 -4.8831 -12.1335 12.4568 -15.498 -0.590839 
205 35 1 0.145 12.01 -11.8121 -5.09483 -12.6549 -25.4752 -8.37812 -9.87685 
2358 393 4 0.418 1.008 -14.5292 -8.86549 -13.0053 8.12385 4.11289 34.1172 
2356 393 2 0.04 1.008 -16.2053 -10.245 -13.5096 -10.5685 14.1542 1.96783 
2353 393 1 0.145 12.01 -16.182 -9.24707 -13.9888 45.3738 -42.8905 -27.7766 
2354 393 2 0.04 1.008 -16.5025 -9.46752 -15.0347 8.99314 9.04252 14.6853 
2355 393 2 0.04 1.008 -16.8762 -8.56347 -13.5836 -10.8936 13.3274 15.4005 
2754 459 4 0.418 1.008 -13.7816 -3.72706 -16.4689 9.92937 23.0959 26.4352 
3313 553 1 0.145 12.01 -17.4165 -0.701648 -16.3227 -44.4235 -20.6864 30.8184 
5093 849 3 -0.683 15.999 -19.5865 -2.63806 -15.0243 -52.0821 43.2994 -23.6711 
2737 457 1 0.145 12.01 -16.1279 -5.45989 -13.1712 -11.5046 -65.679 -65.0952 
3750 625 4 0.418 1.008 -13.7155 -7.0112 -11.6215 4.43354 -20.876 8.26298 
3745 625 1 0.145 12.01 -12.8274 -8.62098 -10.9936 18.7201 9.73448 2.37231 
1204 201 2 0.04 1.008 -12.0602 -1.21716 -19.4962 0.967115 10.3773 10.9159 
722 121 2 0.04 1.008 -13.5078 -6.82258 -18.9111 -26.4511 -18.7219 -44.7313 
3111 519 2 0.04 1.008 -19.2953 -4.34354 -19.5351 5.88679 -2.13986 7.55101 
2742 457 4 0.418 1.008 -16.3266 -5.03757 -11.4208 -28.9046 -2.31821 38.0054 
1596 266 4 0.418 1.008 -12.9871 -8.35462 -15.0769 2.34587 2.67066 -9.41884 
1595 266 3 -0.683 15.999 -12.3537 -7.89972 -15.6392 2.99341 -7.98127 6.83067 
1592 266 2 0.04 1.008 -11.5225 -9.78667 -15.8601 -10.041 5.03495 -12.4371 
1591 266 1 0.145 12.01 -11.6576 -8.85245 -16.4388 14.1242 20.5507 1.39409 
1593 266 2 0.04 1.008 -12.264 -8.92637 -17.3918 21.9735 -8.78926 20.498 
206 35 2 0.04 1.008 -10.9767 -5.52398 -12.1664 17.0354 -5.7778 11.3566 
5253 876 2 0.04 1.008 -20.4637 -5.96175 -12.5104 -10.2222 5.00041 -1.09837 
5254 876 2 0.04 1.008 -20.2807 -7.29542 -13.6592 -3.56447 -3.73668 0.579175 
1594 266 2 0.04 1.008 -10.5947 -8.46201 -16.5854 -34.7877 -10.1684 -5.48156 
1353 226 2 0.04 1.008 -10.7574 -4.77955 -16.6993 19.2956 4.62127 -21.0782 
1156 193 2 0.04 1.008 -10.8657 -1.79825 -14.4281 10.6995 -2.09698 12.578 
4122 687 4 0.418 1.008 -15.6932 -7.75192 -11.0963 -7.74153 -17.2465 21.4907 
1730 289 2 0.04 1.008 -10.684 -3.83483 -20.5039 -9.70626 -12.902 -19.5412 
5256 876 4 0.418 1.008 -18.5711 -7.98944 -11.9891 -1.74434 8.92755 -1.13245 
3208 535 2 0.04 1.008 -14.3706 -2.49001 -11.7501 12.1002 13.0153 29.3786 
5255 876 3 -0.683 15.999 -19.3266 -7.44564 -11.7732 -8.21108 -6.05478 -11.9375 
4119 687 2 0.04 1.008 -16.7061 -9.98072 -10.4461 9.19781 1.82825 -5.68701 
3747 625 2 0.04 1.008 -13.0778 -9.53933 -10.4878 1.20584 -8.61194 2.14562 
3205 535 1 0.145 12.01 -14.077 -2.40045 -10.6559 16.9412 -54.3779 0.135337 
4121 687 3 -0.683 15.999 -16.5727 -7.84282 -10.6728 7.42462 -27.995 13.3038 
3746 625 2 0.04 1.008 -12.2548 -8.79151 -11.8876 0.918034 -9.81333 -10.0928 
3748 625 2 0.04 1.008 -12.1182 -8.04321 -10.3955 -9.17433 1.07198 5.45441 
3283 548 1 0.145 12.01 -5.48159 -8.65373 -19.6787 35.157 -17.0214 -3.24237 
3286 548 2 0.04 1.008 -6.03969 -7.76423 -19.5754 -17.9172 15.023 15.2512 
498 83 4 0.418 1.008 -0.111864 -3.03122 -10.9333 12.7476 -8.10547 -6.4929 
4216 703 2 0.04 1.008 -0.521967 -4.44291 -13.0563 2.26119 3.50517 2.8824 
3926 655 2 0.04 1.008 -2.45271 -3.46545 -15.5553 15.8658 -7.93193 -7.68795 
4101 684 2 0.04 1.008 -10.2622 -7.85334 -19.094 18.1598 7.88488 -22.4052 
5691 949 2 0.04 1.008 -9.26632 -0.365676 -17.4128 10.8914 -25.3185 -0.245769 
2870 479 2 0.04 1.008 -2.48567 -1.96773 -12.3389 -0.58872 -8.42162 0.191309 
650 109 2 0.04 1.008 -0.652928 -8.82455 -19.6224 -0.380538 -5.36743 15.6963 
4099 684 1 0.145 12.01 -9.48288 -7.70502 -19.9029 0.894538 -14.8218 7.75446 
1417 237 1 0.145 12.01 -2.41759 -0.753596 -20.1931 -11.7266 -10.7847 -32.5328 
813 136 2 0.04 1.008 -2.59604 -10.1759 -17.6267 -6.61247 5.43253 11.078 
2064 344 4 0.418 1.008 -8.8815 -9.9632 -12.7354 -8.02265 -6.64097 2.58736 
5248 875 2 0.04 1.008 -4.97417 -9.59859 -12.4156 4.17218 -7.42491 -16.2544 
5250 875 4 0.418 1.008 -6.62853 -9.60896 -11.1943 -6.80803 -6.63635 6.92525 
5249 875 3 -0.683 15.999 -6.83394 -9.96236 -12.0619 -5.10365 12.3976 8.16199 
5245 875 1 0.145 12.01 -5.92148 -9.27482 -12.8494 12.9722 -5.2083 25.988 
5246 875 2 0.04 1.008 -6.10082 -9.58237 -13.8785 9.93718 10.189 -4.52523 
1280 214 2 0.04 1.008 -2.36006 -6.1877 -20.3369 8.80646 -13.3552 -12.979 
4100 684 2 0.04 1.008 -9.45576 -8.56601 -20.5655 -12.8266 1.72727 -3.27817 
4729 789 1 0.145 12.01 -7.83288 -5.35319 -13.6391 17.0221 -11.854 53.8162 
3192 532 4 0.418 1.008 -4.95855 -5.38208 -13.3432 23.6091 -16.8559 11.7095 
4732 789 2 0.04 1.008 -8.70565 -4.76622 -13.3805 -7.86565 -8.41445 -0.357034 
1329 222 2 0.04 1.008 -5.69347 -0.337564 -18.8584 1.99284 27.1929 -35.0104 
3288 548 4 0.418 1.008 -3.7927 -9.41854 -19.066 13.7788 -28.8629 -8.46394 
5331 889 2 0.04 1.008 -1.91882 -7.94411 -16.6908 13.6052 -16.7932 -5.21341 
3332 556 2 0.04 1.008 -5.38835 -0.55242 -15.2666 -1.0877 -8.8405 7.19292 
5447 908 3 -0.683 15.999 -10.0717 -1.21771 -11.309 -8.48115 -6.37436 18.207 
1352 226 2 0.04 1.008 -10.2551 -5.27331 -18.3483 -3.10681 -1.14202 -8.84534 
1354 226 2 0.04 1.008 -9.07592 -5.30895 -17.0238 -12.2985 5.5663 -8.53852 
1351 226 1 0.145 12.01 -9.92754 -4.7474 -17.4688 -3.62029 -9.26747 39.1823 
5330 889 2 0.04 1.008 -1.89858 -6.30151 -16.1861 -8.18594 -2.5679 6.15214 
3284 548 2 0.04 1.008 -6.04729 -9.57927 -19.4923 -2.03855 9.43489 -2.22311 
1154 193 2 0.04 1.008 -10.2941 -3.46013 -14.4323 -0.638516 -16.9129 -1.55753 
1332 222 4 0.418 1.008 -5.24173 -1.81097 -20.0718 -26.2784 30.058 -37.9639 
4499 750 3 -0.683 15.999 -7.58659 -7.96795 -17.1252 26.9857 -13.7384 24.4362 
1422 237 4 0.418 1.008 -1.94197 -0.635019 -18.491 9.71322 -13.0079 27.6435 
3191 532 3 -0.683 15.999 -4.16807 -5.96102 -13.2187 -29.6972 18.9335 1.5182 
4102 684 2 0.04 1.008 -8.47456 -7.85666 -19.5029 -6.75492 13.9027 5.56934 
1279 214 1 0.145 12.01 -2.25577 -5.85648 -19.3276 -65.0107 16.5665 2.06953 
2644 441 2 0.04 1.008 -0.213663 -9.70544 -14.1408 7.29412 -2.89553 2.23358 
1283 214 3 -0.683 15.999 -3.62948 -5.69943 -18.8355 31.1548 17.6272 -7.23758 
1155 193 2 0.04 1.008 -9.38723 -2.15797 -15.2471 -10.4366 -11.6352 -5.36011 
3336 556 4 0.418 1.008 -8.13554 -0.819203 -14.8486 33.9325 15.5397 -3.27253 
3333 556 2 0.04 1.008 -6.27013 -1.26732 -13.7558 1.67064 -4.74151 -20.4356 
1282 214 2 0.04 1.008 -1.70183 -6.45682 -18.6982 16.8651 -34.9006 15.0111 
3188 532 2 0.04 1.008 -2.98649 -4.57939 -12.2742 -15.3005 -35.4811 12.639 
3335 556 3 -0.683 15.999 -7.4194 -0.233553 -15.1879 -37.6429 -16.0426 1.03549 
1284 214 4 0.418 1.008 -4.09577 -6.5258 -18.877 4.74397 -12.6179 -1.52019 
1327 222 1 0.145 12.01 -6.02635 -0.0343823 -19.9127 38.3775 -50.6152 20.6852 
5332 889 2 0.04 1.008 -3.37885 -7.13938 -16.7693 -6.89961 6.57183 2.18935 
3925 655 1 0.145 12.01 -1.82963 -2.63375 -15.911 2.0218 15.7129 -9.25308 
1420 237 2 0.04 1.008 -3.37717 -1.30196 -20.1075 23.3663 2.04532 7.78803 
1158 193 4 0.418 1.008 -9.40464 -1.87956 -12.5576 3.75494 -4.56956 -12.1678 
4498 750 2 0.04 1.008 -6.08698 -6.7892 -16.4884 -7.68583 -11.9995 7.77562 
2871 479 2 0.04 1.008 -2.67408 -1.06299 -10.7853 0.568579 3.00531 -32.679 
4495 750 1 0.145 12.01 -6.45061 -7.8136 -16.2527 26.2085 32.6328 -23.0691 
3187 532 1 0.145 12.01 -3.49621 -5.57654 -12.0152 54.3055 27.7003 -52.2379 
3190 532 2 0.04 1.008 -4.0685 -5.38421 -11.1739 -28.9651 0.223832 25.6932 
4496 750 2 0.04 1.008 -5.51815 -8.39669 -16.5066 -29.7375 1.91384 6.20953 
3189 532 2 0.04 1.008 -2.70314 -6.31365 -11.7706 -10.2577 9.13134 -1.39093 
2873 479 3 -0.683 15.999 -4.08923 -0.737233 -12.2338 -6.51082 21.8781 -42.6947 
1330 222 2 0.04 1.008 -7.05168 -0.0160951 -19.7769 -37.8546 9.55206 -3.71525 
2874 479 4 0.418 1.008 -4.68165 -0.958951 -11.5484 -9.89006 -12.0718 27.8495 
4500 750 4 0.418 1.008 -7.58338 -8.905 -17.27 -11.0905 -6.34377 -7.18402 
5247 875 2 0.04 1.008 -5.85985 -8.21348 -12.5746 -13.5634 -0.232922 -17.2239 
5334 889 4 0.418 1.008 -3.35452 -6.91452 -14.5296 24.0507 -46.443 1.08499 
4734 789 4 0.418 1.008 -7.14683 -3.67646 -13.3378 9.81447 9.1143 5.19036 
3331 556 1 0.145 12.01 -6.21078 -0.491498 -14.5427 6.39099 11.6474 29.9509 
749 125 3 -0.683 15.999 -4.53259 -3.0775 -18.5881 -24.2129 21.2192 25.4563 
3930 655 4 0.418 1.008 -3.05062 -2.46949 -17.4707 -18.2652 -7.22953 0.408389 
1355 226 3 -0.683 15.999 -9.47738 -3.4354 -17.7358 -11.6996 17.0531 -3.18236 
1356 226 4 0.418 1.008 -10.2224 -2.8634 -17.9576 10.3916 -15.7119 3.6116 
1153 193 1 0.145 12.01 -9.97322 -2.4481 -14.3685 11.764 33.5692 -14.9977 
2869 479 1 0.145 12.01 -2.78081 -1.01895 -11.9171 16.613 -11.3557 45.9302 
4731 789 2 0.04 1.008 -7.81306 -6.30156 -13.0348 -4.15886 17.7622 -15.9141 
747 125 2 0.04 1.008 -6.0452 -2.22578 -17.4953 -22.4771 38.1678 9.20151 
748 125 2 0.04 1.008 -6.31798 -3.77042 -18.2854 -27.5226 -9.11421 -2.74789 
3287 548 3 -0.683 15.999 -4.27853 -8.64716 -18.8797 -38.5639 46.4098 -5.41754 
4497 750 2 0.04 1.008 -6.64624 -7.80471 -15.174 -5.05212 -5.39766 -6.98594 
745 125 1 0.145 12.01 -5.68719 -3.16463 -17.6925 77.6912 -47.0666 -14.9202 
746 125 2 0.04 1.008 -5.39502 -3.70514 -16.7538 -8.40897 11.3735 -16.6624 
3929 655 3 -0.683 15.999 -2.15898 -2.2597 -17.2573 17.1186 12.4757 15.4198 
2646 441 4 0.418 1.008 -2.01294 -9.4913 -14.961 2.50536 -7.23681 5.71305 
3928 655 2 0.04 1.008 -0.726479 -2.71923 -15.979 -14.8858 -16.4386 10.3566 
4733 789 3 -0.683 15.999 -6.75945 -4.53131 -13.181 -16.2389 -8.15316 -21.6826 
1157 193 3 -0.683 15.999 -8.97887 -2.19868 -13.3844 -4.5941 -2.52138 0.483593 
3927 655 2 0.04 1.008 -1.98145 -1.89456 -15.1159 -3.57595 7.21835 -12.9032 
750 125 4 0.418 1.008 -4.19172 -3.9535 -18.7349 0.883033 -15.7998 -0.111149 
5333 889 3 -0.683 15.999 -2.82887 -7.69149 -14.8918 -23.4246 46.2728 13.5037 
4730 789 2 0.04 1.008 -7.85621 -5.56512 -14.6742 4.34596 -1.99823 -22.6963 
5329 889 1 0.145 12.01 -2.49113 -7.22789 -16.1625 4.44921 5.31425 -10.206 
1419 237 2 0.04 1.008 -1.55452 -1.42207 -20.3466 -12.2128 1.27641 -2.71889 
1281 214 2 0.04 1.008 -1.66918 -4.98132 -19.3454 3.50868 27.7307 -1.74251 
2872 479 2 0.04 1.008 -2.10194 -0.295794 -12.3376 3.47719 9.12924 -0.29693 
4786 798 2 0.04 1.008 -6.57988 -3.23763 -10.8027 0.487451 -25.688 -11.9386 
654 109 4 0.418 1.008 -2.30317 -9.56378 -20.5455 -6.69675 3.35904 -19.2423 
649 109 1 0.145 12.01 -0.631476 -8.86804 -20.6887 41.5875 14.3798 -50.3745 
4103 684 3 -0.683 15.999 -9.5796 -6.52094 -20.6908 20.3085 -8.41752 10.9502 
5873 979 3 -0.683 15.999 -18.9149 -15.623 -1.53547 1.87822 5.6033 -30.5056 
5874 979 4 0.418 1.008 -18.43 -15.6867 -2.38068 -13.9912 6.61441 13.0396 
570 95 4 0.418 1.008 -17.2468 -17.0626 -3.82502 6.27961 2.71349 -1.11143 
565 95 1 0.145 12.01 -17.0446 -15.7214 -5.25347 33.1904 41.7113 43.3296 
1622 271 2 0.04 1.008 -15.1591 -19.7562 -6.1627 -20.325 14.6424 -1.19827 
568 95 2 0.04 1.008 -15.9415 -15.7254 -5.55203 -34.1456 3.31409 15.8403 
566 95 2 0.04 1.008 -17.4421 -14.6583 -5.33218 10.9715 -32.3031 -5.3117 
569 95 3 -0.683 15.999 -17.2678 -16.106 -3.84422 -2.04136 -5.42819 -40.963 